    2    2    1    1
  0.1763020E+02  0.2950000E-09  0.2949935E-09  0.4678700E-09  0.5000000E-15
  1.000000000000000E-004
  CAR 
 Ti HCP                                  
      8    192      8
 
  0.0000000E+00  0.0000000E+00  0.0000000E+00  0.5208333E-02
    1       -3.076086   1.000000
    2        0.341301   1.000000
    3        3.675949   0.005448
    4        3.677520   0.005277
    5        3.707082   0.002836
    6        3.757368   0.000899
    7        4.147760   0.000000
    8        4.149867   0.000000
 
  0.8621000E-02 -0.8620582E-02  0.0000000E+00  0.5208333E-02
    1       -3.074035   1.000000
    2        0.342944   1.000000
    3        3.664942   0.006790
    4        3.678964   0.005124
    5        3.702684   0.003118
    6        3.767600   0.000701
    7        4.148761   0.000000
    8        4.149119   0.000000
 
  0.1724100E-01 -0.1724066E-01  0.0000000E+00  0.5208333E-02
    1       -3.067879   1.000000
    2        0.347867   1.000000
    3        3.640045   0.010949
    4        3.683335   0.004685
    5        3.689593   0.004115
    6        3.788314   0.000418
    7        4.145433   0.000000
    8        4.151993   0.000000
 
  0.2586200E-01 -0.2586125E-01  0.0000000E+00  0.5208333E-02
    1       -3.057588   1.000000
    2        0.356052   1.000000
    3        3.610047   0.018762
    4        3.668107   0.006377
    5        3.690616   0.004028
    6        3.814281   0.000212
    7        4.140318   0.000000
    8        4.158405   0.000000
 
  0.3448300E-01 -0.3448269E-01  0.0000000E+00  0.5208333E-02
    1       -3.043190   1.000000
    2        0.367466   1.000000
    3        3.577398   0.032218
    4        3.638705   0.011225
    5        3.700798   0.003247
    6        3.841337   0.000101
    7        4.133264   0.000000
    8        4.167381   0.000000
 
  0.4310300E-01 -0.4310278E-01  0.0000000E+00  0.5208333E-02
    1       -3.024707   1.000000
    2        0.382062   1.000000
    3        3.542909   0.054216
    4        3.602021   0.021523
    5        3.713866   0.002445
    6        3.868667   0.000046
    7        4.124408   0.000000
    8        4.178905   0.000000
 
  0.5172400E-01 -0.5172336E-01  0.0000000E+00  0.5208333E-02
    1       -3.002158   1.000000
    2        0.399784   1.000000
    3        3.506869   0.088437
    4        3.558779   0.042944
    5        3.729806   0.001712
    6        3.895915   0.000021
    7        4.113968   0.000000
    8        4.192958   0.000000
 
  0.6034500E-01 -0.6034394E-01  0.0000000E+00  0.5208333E-02
    1       -2.975593   1.000000
    2        0.420557   1.000000
    3        3.469417   0.138825
    4        3.509773   0.085192
    5        3.748594   0.001108
    6        3.922743   0.000009
    7        4.102341   0.000000
    8        4.209518   0.000000
 
  0.6896600E-01 -0.6896452E-01  0.0000000E+00  0.5208333E-02
    1       -2.945035   1.000000
    2        0.444293   1.000000
    3        3.430632   0.208578
    4        3.455808   0.161237
    5        3.770207   0.000658
    6        3.948494   0.000004
    7        4.090323   0.000000
    8        4.228554   0.000000
 
  0.7758600E-01 -0.7758460E-01  0.0000000E+00  0.5208333E-02
    1       -2.910518   1.000000
    2        0.470888   1.000000
    3        3.390591   0.298670
    4        3.397674   0.281527
    5        3.794618   0.000356
    6        3.971489   0.000002
    7        4.079790   0.000000
    8        4.250033   0.000000
 
  0.8620700E-01 -0.8620605E-01  0.0000000E+00  0.5208333E-02
    1       -2.872076   1.000000
    2        0.500226   1.000000
    3        3.336088   0.443209
    4        3.349352   0.406475
    5        3.821797   0.000174
    6        3.987415   0.000001
    7        4.075261   0.000000
    8        4.273922   0.000000
 
  0.9482800E-01 -0.9482663E-01  0.0000000E+00  0.5208333E-02
    1       -2.829779   1.000000
    2        0.532106   1.000000
    3        3.271580   0.622975
    4        3.306432   0.526654
    5        3.850640   0.000078
    6        3.989667   0.000001
    7        4.085789   0.000000
    8        4.301545   0.000000
 
  0.1034480E+00 -0.1034467E+00  0.0000000E+00  0.5208333E-02
    1       -2.783661   1.000000
    2        0.566463   1.000000
    3        3.205017   0.783473
    4        3.262752   0.646440
    5        3.883034   0.000030
    6        3.979592   0.000001
    7        4.105498   0.000000
    8        4.329916   0.000000
 
  0.1120690E+00 -0.1120673E+00  0.0000000E+00  0.5208333E-02
    1       -2.733799   1.000000
    2        0.603172   1.000000
    3        3.136904   0.897173
    4        3.218269   0.754989
    5        3.919673   0.000010
    6        3.962276   0.000002
    7        4.133920   0.000000
    8        4.366181   0.000000
 
  0.1206900E+00 -0.1206879E+00  0.0000000E+00  0.5208333E-02
    1       -2.680286   1.000000
    2        0.641703   1.000000
    3        3.067149   0.960699
    4        3.172913   0.843988
    5        3.941262   0.000005
    6        3.952929   0.000003
    7        4.163817   0.000000
    8        4.302158   0.000000
 
  0.1293100E+00 -0.1293080E+00  0.0000000E+00  0.5208333E-02
    1       -2.623159   1.000000
    2        0.682225   1.000000
    3        2.996901   0.987951
    4        3.126955   0.909218
    5        3.918205   0.000010
    6        3.992668   0.000001
    7        4.196287   0.000000
    8        4.279933   0.000000
 
  0.1379310E+00 -0.1379285E+00  0.0000000E+00  0.5208333E-02
    1       -2.562502   1.000000
    2        0.724348   1.000000
    3        2.926199   0.997070
    4        3.080554   0.951950
    5        3.893876   0.000022
    6        4.034863   0.000000
    7        4.230541   0.000000
    8        4.258997   0.000000
 
  0.1465520E+00 -0.1465500E+00  0.0000000E+00  0.5208333E-02
    1       -2.498402   1.000000
    2        0.767862   1.000000
    3        2.855343   0.999436
    4        3.034504   0.976687
    5        3.868967   0.000046
    6        4.080336   0.000000
    7        4.225468   0.000000
    8        4.237775   0.000000
 
  0.1551720E+00 -0.1551701E+00  0.0000000E+00  0.5208333E-02
    1       -2.430969   1.000000
    2        0.812305   1.000000
    3        2.784604   0.999914
    4        2.987728   0.989841
    5        3.843447   0.000096
    6        4.127159   0.000000
    7        4.197287   0.000000
    8        4.215396   0.000000
 
  0.1637930E+00 -0.1637907E+00  0.0000000E+00  0.5208333E-02
    1       -2.360291   1.000000
    2        0.857430   1.000000
    3        2.714189   0.999990
    4        2.941103   0.995977
    5        3.817833   0.000193
    6        4.168588   0.000000
    7        4.176231   0.000000
    8        4.192595   0.000000
 
  0.1724140E+00 -0.1724112E+00  0.0000000E+00  0.5208333E-02
    1       -2.286514   1.000000
    2        0.902861   1.000000
    3        2.644299   0.999999
    4        2.894864   0.998545
    5        3.792437   0.000376
    6        4.139481   0.000000
    7        4.169418   0.000000
    8        4.227469   0.000000
 
  0.1810340E+00 -0.1810313E+00  0.0000000E+00  0.5208333E-02
    1       -2.209736   1.000000
    2        0.948315   1.000000
    3        2.575111   1.000000
    4        2.849512   0.999513
    5        3.767572   0.000702
    6        4.110065   0.000000
    7        4.145915   0.000000
    8        4.283780   0.000000
 
  0.1896550E+00 -0.1896519E+00  0.0000000E+00  0.5208333E-02
    1       -2.130070   1.000000
    2        0.993083   1.000000
    3        2.506764   1.000000
    4        2.804783   0.999849
    5        3.743527   0.001248
    6        4.080436   0.000000
    7        4.122137   0.000000
    8        4.338928   0.000000
 
  0.1982760E+00 -0.1982734E+00  0.0000000E+00  0.5208333E-02
    1       -2.047656   1.000000
    2        1.036829   1.000000
    3        2.439391   1.000000
    4        2.761216   0.999956
    5        3.720623   0.002106
    6        4.050685   0.000000
    7        4.098141   0.000000
    8        4.395962   0.000000
 
  0.2068970E+00 -0.2068939E+00  0.0000000E+00  0.5208333E-02
    1       -1.962649   1.000000
    2        1.079040   1.000000
    3        2.373114   1.000000
    4        2.719094   0.999988
    5        3.699172   0.003362
    6        4.020903   0.000000
    7        4.073980   0.000000
    8        4.454769   0.000000
 
  0.2155170E+00 -0.2155140E+00  0.0000000E+00  0.5208333E-02
    1       -1.875211   1.000000
    2        1.119180   1.000000
    3        2.308038   1.000000
    4        2.678698   0.999997
    5        3.679496   0.005069
    6        3.991174   0.000001
    7        4.049714   0.000000
    8        4.515228   0.000000
 
  0.2241380E+00 -0.2241346E+00  0.0000000E+00  0.5208333E-02
    1       -1.785523   1.000000
    2        1.156682   1.000000
    3        2.244247   1.000000
    4        2.640132   0.999999
    5        3.660867   0.007356
    6        3.961572   0.000002
    7        4.025398   0.000000
    8        4.577228   0.000000
 
  0.2327590E+00 -0.2327552E+00  0.0000000E+00  0.5208333E-02
    1       -1.693747   1.000000
    2        1.191051   1.000000
    3        2.181829   1.000000
    4        2.603965   1.000000
    5        3.645657   0.009855
    6        3.932177   0.000007
    7        4.001097   0.000001
    8        4.640635   0.000000
 
  0.2413790E+00 -0.2413753E+00  0.0000000E+00  0.5208333E-02
    1       -1.600082   1.000000
    2        1.221740   1.000000
    3        2.120864   1.000000
    4        2.570289   1.000000
    5        3.633170   0.012432
    6        3.903063   0.000016
    7        3.976872   0.000001
    8        4.705296   0.000000
 
  0.2500000E+00 -0.2499967E+00  0.0000000E+00  0.5208333E-02
    1       -1.504702   1.000000
    2        1.248421   1.000000
    3        2.062158   1.000000
    4        2.539339   1.000000
    5        3.624352   0.014585
    6        3.874293   0.000039
    7        3.954491   0.000003
    8        4.771074   0.000000
 
  0.2586210E+00 -0.2586173E+00  0.0000000E+00  0.5208333E-02
    1       -1.407857   1.000000
    2        1.270431   1.000000
    3        2.004217   1.000000
    4        2.511124   1.000000
    5        3.618047   0.016316
    6        3.845939   0.000089
    7        3.930419   0.000007
    8        4.837802   0.000000
 
  0.2672410E+00 -0.2672374E+00  0.0000000E+00  0.5208333E-02
    1       -1.309777   1.000000
    2        1.287627   1.000000
    3        1.947921   1.000000
    4        2.485770   1.000000
    5        3.615190   0.017156
    6        3.818062   0.000192
    7        3.906623   0.000015
    8        4.905295   0.000000
 
  0.2758620E+00 -0.2758580E+00  0.0000000E+00  0.5208333E-02
    1       -1.210705   1.000000
    2        1.299862   1.000000
    3        1.893188   1.000000
    4        2.460849   1.000000
    5        3.615846   0.016960
    6        3.790718   0.000393
    7        3.883151   0.000030
    8        4.973378   0.000000
 
  0.2844830E+00 -0.2844785E+00  0.0000000E+00  0.5208333E-02
    1       -1.110923   1.000000
    2        1.306746   1.000000
    3        1.839363   1.000000
    4        2.440828   1.000000
    5        3.620048   0.015749
    6        3.763966   0.000766
    7        3.859496   0.000061
    8        5.041844   0.000000
 
  0.2931030E+00 -0.2930986E+00  0.0000000E+00  0.5208333E-02
    1       -1.010690   1.000000
    2        1.309148   1.000000
    3        1.788199   1.000000
    4        2.423395   1.000000
    5        3.627967   0.013666
    6        3.737862   0.001423
    7        3.836871   0.000115
    8        5.110473   0.000000
 
  0.3017240E+00 -0.3017192E+00  0.0000000E+00  0.5208333E-02
    1       -0.910283   1.000000
    2        1.307010   1.000000
    3        1.738853   1.000000
    4        2.408250   1.000000
    5        3.639352   0.011091
    6        3.712453   0.002523
    7        3.814744   0.000210
    8        5.179052   0.000000
 
  0.3103450E+00 -0.3103406E+00  0.0000000E+00  0.5208333E-02
    1       -0.810014   1.000000
    2        1.300718   1.000000
    3        1.691364   1.000000
    4        2.395138   1.000000
    5        3.653984   0.008408
    6        3.687789   0.004273
    7        3.793168   0.000369
    8        5.247326   0.000000
 
  0.3189660E+00 -0.3189612E+00  0.0000000E+00  0.5208333E-02
    1       -0.710215   1.000000
    2        1.290733   1.000000
    3        1.645774   1.000000
    4        2.383809   1.000000
    5        3.663917   0.006929
    6        3.671562   0.005952
    7        3.772198   0.000626
    8        5.315025   0.000000
 
  0.3275860E+00 -0.3275813E+00  0.0000000E+00  0.5208333E-02
    1       -0.611228   1.000000
    2        1.277552   1.000000
    3        1.602120   1.000000
    4        2.374032   1.000000
    5        3.640884   0.010779
    6        3.691709   0.003937
    7        3.751884   0.001025
    8        5.381867   0.000000
 
  0.3362070E+00 -0.3362019E+00  0.0000000E+00  0.5208333E-02
    1       -0.513388   1.000000
    2        1.262999   1.000000
    3        1.560448   1.000000
    4        2.365690   1.000000
    5        3.619023   0.016037
    6        3.716373   0.002314
    7        3.732300   0.001618
    8        5.447746   0.000000
 
  0.3448280E+00 -0.3448225E+00  0.0000000E+00  0.5208333E-02
    1       -0.417080   1.000000
    2        1.244854   1.000000
    3        1.520736   1.000000
    4        2.358552   1.000000
    5        3.597768   0.023120
    6        3.713425   0.002469
    7        3.740204   0.001348
    8        5.511950   0.000000
 
  0.3534480E+00 -0.3534426E+00  0.0000000E+00  0.5208333E-02
    1       -0.322650   1.000000
    2        1.224946   1.000000
    3        1.483041   1.000000
    4        2.352552   1.000000
    5        3.577469   0.032181
    6        3.695339   0.003647
    7        3.765256   0.000743
    8        5.574373   0.000000
 
  0.3620690E+00 -0.3620640E+00  0.0000000E+00  0.5208333E-02
    1       -0.230443   1.000000
    2        1.203671   1.000000
    3        1.447381   1.000000
    4        2.347646   1.000000
    5        3.558156   0.043348
    6        3.678079   0.005217
    7        3.791059   0.000390
    8        5.634711   0.000000
 
  0.3706900E+00 -0.3706846E+00  0.0000000E+00  0.5208333E-02
    1       -0.140838   1.000000
    2        1.181385   1.000000
    3        1.413782   1.000000
    4        2.343813   1.000000
    5        3.539865   0.056625
    6        3.661686   0.007239
    7        3.817154   0.000197
    8        5.692644   0.000000
 
  0.3793100E+00 -0.3793047E+00  0.0000000E+00  0.5208333E-02
    1       -0.054190   1.000000
    2        1.158386   1.000000
    3        1.382271   1.000000
    4        2.341046   1.000000
    5        3.522626   0.071890
    6        3.646199   0.009755
    7        3.843111   0.000096
    8        5.747876   0.000000
 
  0.3879310E+00 -0.3879253E+00  0.0000000E+00  0.5208333E-02
    1        0.029160   1.000000
    2        1.134912   1.000000
    3        1.352863   1.000000
    4        2.339330   1.000000
    5        3.506464   0.088898
    6        3.631648   0.012782
    7        3.868548   0.000047
    8        5.800143   0.000000
 
  0.3965520E+00 -0.3965458E+00  0.0000000E+00  0.5208333E-02
    1        0.108906   1.000000
    2        1.111159   1.000000
    3        1.325581   1.000000
    4        2.338642   1.000000
    5        3.491407   0.107284
    6        3.618066   0.016310
    7        3.893112   0.000022
    8        5.849208   0.000000
 
  0.4051720E+00 -0.4051659E+00  0.0000000E+00  0.5208333E-02
    1        0.184773   1.000000
    2        1.087273   1.000000
    3        1.300444   1.000000
    4        2.338930   1.000000
    5        3.477480   0.126597
    6        3.605483   0.020292
    7        3.916497   0.000011
    8        5.894869   0.000000
 
  0.4137930E+00 -0.4137865E+00  0.0000000E+00  0.5208333E-02
    1        0.256537   1.000000
    2        1.063353   1.000000
    3        1.277461   1.000000
    4        2.340120   1.000000
    5        3.464703   0.146336
    6        3.593925   0.024648
    7        3.938451   0.000005
    8        5.936983   0.000000
 
  0.4224140E+00 -0.4224079E+00  0.0000000E+00  0.5208333E-02
    1        0.323996   1.000000
    2        1.039469   1.000000
    3        1.256647   1.000000
    4        2.342105   1.000000
    5        3.453096   0.165971
    6        3.583416   0.029265
    7        3.958759   0.000003
    8        5.975420   0.000000
 
  0.4310340E+00 -0.4310280E+00  0.0000000E+00  0.5208333E-02
    1        0.386973   1.000000
    2        1.015461   1.000000
    3        1.236659   1.000000
    4        2.344636   1.000000
    5        3.442409   0.185489
    6        3.571878   0.035139
    7        3.976757   0.000001
    8        6.009859   0.000000
 
  0.4396550E+00 -0.4396486E+00  0.0000000E+00  0.5208333E-02
    1        0.445376   1.000000
    2        0.991754   1.000000
    3        1.220101   1.000000
    4        2.347788   1.000000
    5        3.436796   0.196290
    6        3.565423   0.038826
    7        3.993296   0.000001
    8        6.046612   0.000000
 
  0.4482760E+00 -0.4482692E+00  0.0000000E+00  0.5208333E-02
    1        0.498871   1.000000
    2        0.968189   1.000000
    3        1.205523   1.000000
    4        2.350853   1.000000
    5        3.428592   0.212743
    6        3.556557   0.044398
    7        4.007469   0.000001
    8        6.073355   0.000000
 
  0.4568970E+00 -0.4568898E+00  0.0000000E+00  0.5208333E-02
    1        0.547652   1.000000
    2        0.944873   1.000000
    3        1.193327   1.000000
    4        2.354221   1.000000
    5        3.421631   0.227316
    6        3.550198   0.048778
    7        4.019811   0.000000
    8        6.096083   0.000000
 
  0.4655170E+00 -0.4655099E+00  0.0000000E+00  0.5208333E-02
    1        0.591300   1.000000
    2        0.921799   1.000000
    3        1.183193   1.000000
    4        2.356888   1.000000
    5        3.415922   0.239675
    6        3.544718   0.052823
    7        4.029190   0.000000
    8        6.114753   0.000000
 
  0.4741380E+00 -0.4741313E+00  0.0000000E+00  0.5208333E-02
    1        0.629222   1.000000
    2        0.900086   1.000000
    3        1.175415   1.000000
    4        2.359575   1.000000
    5        3.411473   0.249556
    6        3.540649   0.055996
    7        4.037092   0.000000
    8        6.129337   0.000000
 
  0.4827590E+00 -0.4827519E+00  0.0000000E+00  0.5208333E-02
    1        0.660091   1.000000
    2        0.880797   1.000000
    3        1.169856   1.000000
    4        2.361648   1.000000
    5        3.408291   0.256754
    6        3.537735   0.058359
    7        4.042762   0.000000
    8        6.139809   0.000000
 
  0.4913790E+00 -0.4913720E+00  0.0000000E+00  0.5208333E-02
    1        0.681301   1.000000
    2        0.866544   1.000000
    3        1.166520   1.000000
    4        2.362958   1.000000
    5        3.406380   0.261128
    6        3.535984   0.059817
    7        4.046190   0.000000
    8        6.146157   0.000000
 
  0.5000000E+00 -0.4999925E+00  0.0000000E+00  0.5208333E-02
    1        0.689183   1.000000
    2        0.861318   1.000000
    3        1.165406   1.000000
    4        2.363420   1.000000
    5        3.405742   0.262596
    6        3.535399   0.060310
    7        4.049444   0.000000
    8        6.151286   0.000000
 
  0.5049020E+00 -0.4950912E+00  0.0000000E+00  0.5208333E-02
    1        0.690529   1.000000
    2        0.862589   1.000000
    3        1.165778   1.000000
    4        2.362171   1.000000
    5        3.404930   0.264471
    6        3.534973   0.060671
    7        4.047537   0.000000
    8        6.148464   0.000000
 
  0.5098040E+00 -0.4901890E+00  0.0000000E+00  0.5208333E-02
    1        0.694953   1.000000
    2        0.867038   1.000000
    3        1.166891   1.000000
    4        2.358531   1.000000
    5        3.402507   0.270107
    6        3.533697   0.061763
    7        4.048463   0.000000
    8        6.149026   0.000000
 
  0.5147060E+00 -0.4852877E+00  0.0000000E+00  0.5208333E-02
    1        0.702305   1.000000
    2        0.874436   1.000000
    3        1.168735   1.000000
    4        2.352507   1.000000
    5        3.398505   0.279547
    6        3.531571   0.063616
    7        4.050144   0.000000
    8        6.150020   0.000000
 
  0.5196080E+00 -0.4803855E+00  0.0000000E+00  0.5208333E-02
    1        0.712545   1.000000
    2        0.884745   1.000000
    3        1.171298   1.000000
    4        2.344150   1.000000
    5        3.392956   0.292892
    6        3.528599   0.066279
    7        4.052584   0.000000
    8        6.151364   0.000000
 
  0.5245100E+00 -0.4754841E+00  0.0000000E+00  0.5208333E-02
    1        0.725610   1.000000
    2        0.897035   1.000000
    3        1.174557   1.000000
    4        2.333474   1.000000
    5        3.385923   0.310222
    6        3.524776   0.069830
    7        4.055787   0.000000
    8        6.152930   0.000000
 
  0.5294120E+00 -0.4705819E+00  0.0000000E+00  0.5208333E-02
    1        0.741429   1.000000
    2        0.912883   1.000000
    3        1.178488   1.000000
    4        2.320680   1.000000
    5        3.377481   0.331591
    6        3.520114   0.074356
    7        4.059764   0.000000
    8        6.154606   0.000000
 
  0.5343140E+00 -0.4656806E+00  0.0000000E+00  0.5208333E-02
    1        0.759876   1.000000
    2        0.931421   1.000000
    3        1.183054   1.000000
    4        2.305822   1.000000
    5        3.364190   0.366346
    6        3.512562   0.082159
    7        4.064525   0.000000
    8        6.149900   0.000000
 
  0.5392160E+00 -0.4607784E+00  0.0000000E+00  0.5208333E-02
    1        0.780825   1.000000
    2        0.951139   1.000000
    3        1.188177   1.000000
    4        2.288820   1.000000
    5        3.352870   0.396854
    6        3.506060   0.089358
    7        4.069335   0.000000
    8        6.149268   0.000000
 
  0.5441180E+00 -0.4558770E+00  0.0000000E+00  0.5208333E-02
    1        0.804262   1.000000
    2        0.974569   1.000000
    3        1.193894   1.000000
    4        2.270199   1.000000
    5        3.340648   0.430509
    6        3.498793   0.097947
    7        4.075718   0.000000
    8        6.150197   0.000000
 
  0.5490200E+00 -0.4509757E+00  0.0000000E+00  0.5208333E-02
    1        0.829680   1.000000
    2        1.000308   1.000000
    3        1.199994   1.000000
    4        2.249819   1.000000
    5        3.323496   0.478549
    6        3.490232   0.108826
    7        4.082764   0.000000
    8        6.152368   0.000000
 
  0.5539220E+00 -0.4460735E+00  0.0000000E+00  0.5208333E-02
    1        0.857495   1.000000
    2        1.028223   1.000000
    3        1.206637   1.000000
    4        2.227986   1.000000
    5        3.309381   0.518349
    6        3.481298   0.121076
    7        4.090828   0.000000
    8        6.119036   0.000000
 
  0.5588240E+00 -0.4411721E+00  0.0000000E+00  0.5208333E-02
    1        0.887253   1.000000
    2        1.058131   1.000000
    3        1.213664   1.000000
    4        2.204783   1.000000
    5        3.294621   0.559767
    6        3.471585   0.135461
    7        4.099759   0.000000
    8        6.085286   0.000000
 
  0.5637260E+00 -0.4362699E+00  0.0000000E+00  0.5208333E-02
    1        0.918772   1.000000
    2        1.089848   1.000000
    3        1.221010   1.000000
    4        2.180364   1.000000
    5        3.279383   0.601847
    6        3.461113   0.152236
    7        4.109573   0.000000
    8        6.051460   0.000000
 
  0.5686280E+00 -0.4313686E+00  0.0000000E+00  0.5208333E-02
    1        0.951842   1.000000
    2        1.123168   1.000000
    3        1.228603   1.000000
    4        2.154893   1.000000
    5        3.263848   0.643555
    6        3.449911   0.171645
    7        4.120283   0.000000
    8        6.018191   0.000000
 
  0.5735300E+00 -0.4264664E+00  0.0000000E+00  0.5208333E-02
    1        0.986254   1.000000
    2        1.157877   1.000000
    3        1.236371   1.000000
    4        2.128524   1.000000
    5        3.248203   0.683890
    6        3.438010   0.193923
    7        4.131894   0.000000
    8        5.985731   0.000000
 
  0.5784320E+00 -0.4215650E+00  0.0000000E+00  0.5208333E-02
    1        1.021913   1.000000
    2        1.193724   1.000000
    3        1.244253   1.000000
    4        2.101421   1.000000
    5        3.233045   0.720992
    6        3.425447   0.219258
    7        4.147433   0.000000
    8        5.954963   0.000000
 
  0.5833330E+00 -0.4166632E+00  0.0000000E+00  0.5208333E-02
    1        1.058283   1.000000
    2        1.230453   1.000000
    3        1.252122   1.000000
    4        2.073738   1.000000
    5        3.217702   0.756247
    6        3.412264   0.247784
    7        4.160568   0.000000
    8        5.925110   0.000000
 
  0.5882350E+00 -0.4117610E+00  0.0000000E+00  0.5208333E-02
    1        1.095295   1.000000
    2        1.259920   1.000000
    3        1.267795   1.000000
    4        2.045623   1.000000
    5        3.202832   0.787978
    6        3.398504   0.279549
    7        4.174574   0.000000
    8        5.896966   0.000000
 
  0.5931370E+00 -0.4068597E+00  0.0000000E+00  0.5208333E-02
    1        1.132691   1.000000
    2        1.267561   1.000000
    3        1.305450   1.000000
    4        2.017232   1.000000
    5        3.188632   0.815897
    6        3.384221   0.314482
    7        4.189396   0.000000
    8        5.870805   0.000000
 
  0.5980390E+00 -0.4019575E+00  0.0000000E+00  0.5208333E-02
    1        1.170241   1.000000
    2        1.276381   1.000000
    3        1.343295   1.000000
    4        1.988895   1.000000
    5        3.175334   0.839856
    6        3.371391   0.347357
    7        4.206175   0.000000
    8        5.848572   0.000000
 
  0.6029410E+00 -0.3970561E+00  0.0000000E+00  0.5208333E-02
    1        1.207673   1.000000
    2        1.283395   1.000000
    3        1.380635   1.000000
    4        1.960380   1.000000
    5        3.163062   0.860072
    6        3.356182   0.387853
    7        4.222407   0.000000
    8        5.826974   0.000000
 
  0.6078430E+00 -0.3921539E+00  0.0000000E+00  0.5208333E-02
    1        1.244760   1.000000
    2        1.290013   1.000000
    3        1.417849   1.000000
    4        1.932069   1.000000
    5        3.152024   0.876709
    6        3.340629   0.430562
    7        4.239139   0.000000
    8        5.808100   0.000000
 
  0.6127450E+00 -0.3872526E+00  0.0000000E+00  0.5208333E-02
    1        1.281406   1.000000
    2        1.296471   1.000000
    3        1.453841   1.000000
    4        1.904668   1.000000
    5        3.142457   0.889965
    6        3.325293   0.473489
    7        4.256994   0.000000
    8        5.794045   0.000000
 
  0.6176470E+00 -0.3823504E+00  0.0000000E+00  0.5208333E-02
    1        1.302094   1.000000
    2        1.317127   1.000000
    3        1.488027   1.000000
    4        1.876969   1.000000
    5        3.134403   0.900306
    6        3.309274   0.518651
    7        4.274062   0.000000
    8        5.781408   0.000000
 
  0.6225490E+00 -0.3774490E+00  0.0000000E+00  0.5208333E-02
    1        1.307140   1.000000
    2        1.351852   1.000000
    3        1.520398   1.000000
    4        1.849857   1.000000
    5        3.128064   0.907931
    6        3.293139   0.563898
    7        4.290987   0.000000
    8        5.772167   0.000000
 
  0.6274510E+00 -0.3725477E+00  0.0000000E+00  0.5208333E-02
    1        1.311574   1.000000
    2        1.385401   1.000000
    3        1.550503   1.000000
    4        1.823506   1.000000
    5        3.123562   0.913077
    6        3.276967   0.608424
    7        4.307478   0.000000
    8        5.766519   0.000000
 
  0.6323530E+00 -0.3676455E+00  0.0000000E+00  0.5208333E-02
    1        1.315375   1.000000
    2        1.417617   1.000000
    3        1.577829   1.000000
    4        1.798155   1.000000
    5        3.121005   0.915903
    6        3.260842   0.651450
    7        4.323217   0.000000
    8        5.764638   0.000000
 
  0.6372550E+00 -0.3627441E+00  0.0000000E+00  0.5208333E-02
    1        1.318532   1.000000
    2        1.448371   1.000000
    3        1.601700   1.000000
    4        1.774209   1.000000
    5        3.120481   0.916474
    6        3.244850   0.692277
    7        4.337862   0.000000
    8        5.766657   0.000000
 
  0.6421570E+00 -0.3578419E+00  0.0000000E+00  0.5208333E-02
    1        1.320867   1.000000
    2        1.477510   1.000000
    3        1.620729   1.000000
    4        1.752140   1.000000
    5        3.120161   0.916821
    6        3.229074   0.730348
    7        4.347670   0.000000
    8        5.772125   0.000000
 
  0.6470590E+00 -0.3529406E+00  0.0000000E+00  0.5208333E-02
    1        1.322746   1.000000
    2        1.505074   1.000000
    3        1.633826   1.000000
    4        1.733943   1.000000
    5        3.123771   0.912843
    6        3.213607   0.765233
    7        4.358922   0.000000
    8        5.781939   0.000000
 
  0.6519610E+00 -0.3480384E+00  0.0000000E+00  0.5208333E-02
    1        1.324059   1.000000
    2        1.530954   1.000000
    3        1.638000   1.000000
    4        1.721771   1.000000
    5        3.129539   0.906196
    6        3.198532   0.796684
    7        4.368088   0.000000
    8        5.795650   0.000000
 
  0.6568630E+00 -0.3431370E+00  0.0000000E+00  0.5208333E-02
    1        1.324869   1.000000
    2        1.555127   1.000000
    3        1.631693   1.000000
    4        1.716915   1.000000
    5        3.137462   0.896465
    6        3.183937   0.824598
    7        4.374892   0.000000
    8        5.813100   0.000000
 